# vtk DataFile Version 3.0
Poisson Cylindrical Solution
ASCII
DATASET STRUCTURED_GRID
DIMENSIONS 50 1 100
POINTS 5000 float
0 0 0
0.0204082 0 0
0.0408163 0 0
0.0612245 0 0
0.0816327 0 0
0.102041 0 0
0.122449 0 0
0.142857 0 0
0.163265 0 0
0.183673 0 0
0.204082 0 0
0.22449 0 0
0.244898 0 0
0.265306 0 0
0.285714 0 0
0.306122 0 0
0.326531 0 0
0.346939 0 0
0.367347 0 0
0.387755 0 0
0.408163 0 0
0.428571 0 0
0.44898 0 0
0.469388 0 0
0.489796 0 0
0.510204 0 0
0.530612 0 0
0.55102 0 0
0.571429 0 0
0.591837 0 0
0.612245 0 0
0.632653 0 0
0.653061 0 0
0.673469 0 0
0.693878 0 0
0.714286 0 0
0.734694 0 0
0.755102 0 0
0.77551 0 0
0.795918 0 0
0.816327 0 0
0.836735 0 0
0.857143 0 0
0.877551 0 0
0.897959 0 0
0.918367 0 0
0.938776 0 0
0.959184 0 0
0.979592 0 0
1 0 0
0 0 0.020202
0.0204082 0 0.020202
0.0408163 0 0.020202
0.0612245 0 0.020202
0.0816327 0 0.020202
0.102041 0 0.020202
0.122449 0 0.020202
0.142857 0 0.020202
0.163265 0 0.020202
0.183673 0 0.020202
0.204082 0 0.020202
0.22449 0 0.020202
0.244898 0 0.020202
0.265306 0 0.020202
0.285714 0 0.020202
0.306122 0 0.020202
0.326531 0 0.020202
0.346939 0 0.020202
0.367347 0 0.020202
0.387755 0 0.020202
0.408163 0 0.020202
0.428571 0 0.020202
0.44898 0 0.020202
0.469388 0 0.020202
0.489796 0 0.020202
0.510204 0 0.020202
0.530612 0 0.020202
0.55102 0 0.020202
0.571429 0 0.020202
0.591837 0 0.020202
0.612245 0 0.020202
0.632653 0 0.020202
0.653061 0 0.020202
0.673469 0 0.020202
0.693878 0 0.020202
0.714286 0 0.020202
0.734694 0 0.020202
0.755102 0 0.020202
0.77551 0 0.020202
0.795918 0 0.020202
0.816327 0 0.020202
0.836735 0 0.020202
0.857143 0 0.020202
0.877551 0 0.020202
0.897959 0 0.020202
0.918367 0 0.020202
0.938776 0 0.020202
0.959184 0 0.020202
0.979592 0 0.020202
1 0 0.020202
0 0 0.040404
0.0204082 0 0.040404
0.0408163 0 0.040404
0.0612245 0 0.040404
0.0816327 0 0.040404
0.102041 0 0.040404
0.122449 0 0.040404
0.142857 0 0.040404
0.163265 0 0.040404
0.183673 0 0.040404
0.204082 0 0.040404
0.22449 0 0.040404
0.244898 0 0.040404
0.265306 0 0.040404
0.285714 0 0.040404
0.306122 0 0.040404
0.326531 0 0.040404
0.346939 0 0.040404
0.367347 0 0.040404
0.387755 0 0.040404
0.408163 0 0.040404
0.428571 0 0.040404
0.44898 0 0.040404
0.469388 0 0.040404
0.489796 0 0.040404
0.510204 0 0.040404
0.530612 0 0.040404
0.55102 0 0.040404
0.571429 0 0.040404
0.591837 0 0.040404
0.612245 0 0.040404
0.632653 0 0.040404
0.653061 0 0.040404
0.673469 0 0.040404
0.693878 0 0.040404
0.714286 0 0.040404
0.734694 0 0.040404
0.755102 0 0.040404
0.77551 0 0.040404
0.795918 0 0.040404
0.816327 0 0.040404
0.836735 0 0.040404
0.857143 0 0.040404
0.877551 0 0.040404
0.897959 0 0.040404
0.918367 0 0.040404
0.938776 0 0.040404
0.959184 0 0.040404
0.979592 0 0.040404
1 0 0.040404
0 0 0.0606061
0.0204082 0 0.0606061
0.0408163 0 0.0606061
0.0612245 0 0.0606061
0.0816327 0 0.0606061
0.102041 0 0.0606061
0.122449 0 0.0606061
0.142857 0 0.0606061
0.163265 0 0.0606061
0.183673 0 0.0606061
0.204082 0 0.0606061
0.22449 0 0.0606061
0.244898 0 0.0606061
0.265306 0 0.0606061
0.285714 0 0.0606061
0.306122 0 0.0606061
0.326531 0 0.0606061
0.346939 0 0.0606061
0.367347 0 0.0606061
0.387755 0 0.0606061
0.408163 0 0.0606061
0.428571 0 0.0606061
0.44898 0 0.0606061
0.469388 0 0.0606061
0.489796 0 0.0606061
0.510204 0 0.0606061
0.530612 0 0.0606061
0.55102 0 0.0606061
0.571429 0 0.0606061
0.591837 0 0.0606061
0.612245 0 0.0606061
0.632653 0 0.0606061
0.653061 0 0.0606061
0.673469 0 0.0606061
0.693878 0 0.0606061
0.714286 0 0.0606061
0.734694 0 0.0606061
0.755102 0 0.0606061
0.77551 0 0.0606061
0.795918 0 0.0606061
0.816327 0 0.0606061
0.836735 0 0.0606061
0.857143 0 0.0606061
0.877551 0 0.0606061
0.897959 0 0.0606061
0.918367 0 0.0606061
0.938776 0 0.0606061
0.959184 0 0.0606061
0.979592 0 0.0606061
1 0 0.0606061
0 0 0.0808081
0.0204082 0 0.0808081
0.0408163 0 0.0808081
0.0612245 0 0.0808081
0.0816327 0 0.0808081
0.102041 0 0.0808081
0.122449 0 0.0808081
0.142857 0 0.0808081
0.163265 0 0.0808081
0.183673 0 0.0808081
0.204082 0 0.0808081
0.22449 0 0.0808081
0.244898 0 0.0808081
0.265306 0 0.0808081
0.285714 0 0.0808081
0.306122 0 0.0808081
0.326531 0 0.0808081
0.346939 0 0.0808081
0.367347 0 0.0808081
0.387755 0 0.0808081
0.408163 0 0.0808081
0.428571 0 0.0808081
0.44898 0 0.0808081
0.469388 0 0.0808081
0.489796 0 0.0808081
0.510204 0 0.0808081
0.530612 0 0.0808081
0.55102 0 0.0808081
0.571429 0 0.0808081
0.591837 0 0.0808081
0.612245 0 0.0808081
0.632653 0 0.0808081
0.653061 0 0.0808081
0.673469 0 0.0808081
0.693878 0 0.0808081
0.714286 0 0.0808081
0.734694 0 0.0808081
0.755102 0 0.0808081
0.77551 0 0.0808081
0.795918 0 0.0808081
0.816327 0 0.0808081
0.836735 0 0.0808081
0.857143 0 0.0808081
0.877551 0 0.0808081
0.897959 0 0.0808081
0.918367 0 0.0808081
0.938776 0 0.0808081
0.959184 0 0.0808081
0.979592 0 0.0808081
1 0 0.0808081
0 0 0.10101
0.0204082 0 0.10101
0.0408163 0 0.10101
0.0612245 0 0.10101
0.0816327 0 0.10101
0.102041 0 0.10101
0.122449 0 0.10101
0.142857 0 0.10101
0.163265 0 0.10101
0.183673 0 0.10101
0.204082 0 0.10101
0.22449 0 0.10101
0.244898 0 0.10101
0.265306 0 0.10101
0.285714 0 0.10101
0.306122 0 0.10101
0.326531 0 0.10101
0.346939 0 0.10101
0.367347 0 0.10101
0.387755 0 0.10101
0.408163 0 0.10101
0.428571 0 0.10101
0.44898 0 0.10101
0.469388 0 0.10101
0.489796 0 0.10101
0.510204 0 0.10101
0.530612 0 0.10101
0.55102 0 0.10101
0.571429 0 0.10101
0.591837 0 0.10101
0.612245 0 0.10101
0.632653 0 0.10101
0.653061 0 0.10101
0.673469 0 0.10101
0.693878 0 0.10101
0.714286 0 0.10101
0.734694 0 0.10101
0.755102 0 0.10101
0.77551 0 0.10101
0.795918 0 0.10101
0.816327 0 0.10101
0.836735 0 0.10101
0.857143 0 0.10101
0.877551 0 0.10101
0.897959 0 0.10101
0.918367 0 0.10101
0.938776 0 0.10101
0.959184 0 0.10101
0.979592 0 0.10101
1 0 0.10101
0 0 0.121212
0.0204082 0 0.121212
0.0408163 0 0.121212
0.0612245 0 0.121212
0.0816327 0 0.121212
0.102041 0 0.121212
0.122449 0 0.121212
0.142857 0 0.121212
0.163265 0 0.121212
0.183673 0 0.121212
0.204082 0 0.121212
0.22449 0 0.121212
0.244898 0 0.121212
0.265306 0 0.121212
0.285714 0 0.121212
0.306122 0 0.121212
0.326531 0 0.121212
0.346939 0 0.121212
0.367347 0 0.121212
0.387755 0 0.121212
0.408163 0 0.121212
0.428571 0 0.121212
0.44898 0 0.121212
0.469388 0 0.121212
0.489796 0 0.121212
0.510204 0 0.121212
0.530612 0 0.121212
0.55102 0 0.121212
0.571429 0 0.121212
0.591837 0 0.121212
0.612245 0 0.121212
0.632653 0 0.121212
0.653061 0 0.121212
0.673469 0 0.121212
0.693878 0 0.121212
0.714286 0 0.121212
0.734694 0 0.121212
0.755102 0 0.121212
0.77551 0 0.121212
0.795918 0 0.121212
0.816327 0 0.121212
0.836735 0 0.121212
0.857143 0 0.121212
0.877551 0 0.121212
0.897959 0 0.121212
0.918367 0 0.121212
0.938776 0 0.121212
0.959184 0 0.121212
0.979592 0 0.121212
1 0 0.121212
0 0 0.141414
0.0204082 0 0.141414
0.0408163 0 0.141414
0.0612245 0 0.141414
0.0816327 0 0.141414
0.102041 0 0.141414
0.122449 0 0.141414
0.142857 0 0.141414
0.163265 0 0.141414
0.183673 0 0.141414
0.204082 0 0.141414
0.22449 0 0.141414
0.244898 0 0.141414
0.265306 0 0.141414
0.285714 0 0.141414
0.306122 0 0.141414
0.326531 0 0.141414
0.346939 0 0.141414
0.367347 0 0.141414
0.387755 0 0.141414
0.408163 0 0.141414
0.428571 0 0.141414
0.44898 0 0.141414
0.469388 0 0.141414
0.489796 0 0.141414
0.510204 0 0.141414
0.530612 0 0.141414
0.55102 0 0.141414
0.571429 0 0.141414
0.591837 0 0.141414
0.612245 0 0.141414
0.632653 0 0.141414
0.653061 0 0.141414
0.673469 0 0.141414
0.693878 0 0.141414
0.714286 0 0.141414
0.734694 0 0.141414
0.755102 0 0.141414
0.77551 0 0.141414
0.795918 0 0.141414
0.816327 0 0.141414
0.836735 0 0.141414
0.857143 0 0.141414
0.877551 0 0.141414
0.897959 0 0.141414
0.918367 0 0.141414
0.938776 0 0.141414
0.959184 0 0.141414
0.979592 0 0.141414
1 0 0.141414
0 0 0.161616
0.0204082 0 0.161616
0.0408163 0 0.161616
0.0612245 0 0.161616
0.0816327 0 0.161616
0.102041 0 0.161616
0.122449 0 0.161616
0.142857 0 0.161616
0.163265 0 0.161616
0.183673 0 0.161616
0.204082 0 0.161616
0.22449 0 0.161616
0.244898 0 0.161616
0.265306 0 0.161616
0.285714 0 0.161616
0.306122 0 0.161616
0.326531 0 0.161616
0.346939 0 0.161616
0.367347 0 0.161616
0.387755 0 0.161616
0.408163 0 0.161616
0.428571 0 0.161616
0.44898 0 0.161616
0.469388 0 0.161616
0.489796 0 0.161616
0.510204 0 0.161616
0.530612 0 0.161616
0.55102 0 0.161616
0.571429 0 0.161616
0.591837 0 0.161616
0.612245 0 0.161616
0.632653 0 0.161616
0.653061 0 0.161616
0.673469 0 0.161616
0.693878 0 0.161616
0.714286 0 0.161616
0.734694 0 0.161616
0.755102 0 0.161616
0.77551 0 0.161616
0.795918 0 0.161616
0.816327 0 0.161616
0.836735 0 0.161616
0.857143 0 0.161616
0.877551 0 0.161616
0.897959 0 0.161616
0.918367 0 0.161616
0.938776 0 0.161616
0.959184 0 0.161616
0.979592 0 0.161616
1 0 0.161616
0 0 0.181818
0.0204082 0 0.181818
0.0408163 0 0.181818
0.0612245 0 0.181818
0.0816327 0 0.181818
0.102041 0 0.181818
0.122449 0 0.181818
0.142857 0 0.181818
0.163265 0 0.181818
0.183673 0 0.181818
0.204082 0 0.181818
0.22449 0 0.181818
0.244898 0 0.181818
0.265306 0 0.181818
0.285714 0 0.181818
0.306122 0 0.181818
0.326531 0 0.181818
0.346939 0 0.181818
0.367347 0 0.181818
0.387755 0 0.181818
0.408163 0 0.181818
0.428571 0 0.181818
0.44898 0 0.181818
0.469388 0 0.181818
0.489796 0 0.181818
0.510204 0 0.181818
0.530612 0 0.181818
0.55102 0 0.181818
0.571429 0 0.181818
0.591837 0 0.181818
0.612245 0 0.181818
0.632653 0 0.181818
0.653061 0 0.181818
0.673469 0 0.181818
0.693878 0 0.181818
0.714286 0 0.181818
0.734694 0 0.181818
0.755102 0 0.181818
0.77551 0 0.181818
0.795918 0 0.181818
[...]
POINT_DATA 5000
SCALARS phi float 1
LOOKUP_TABLE default
0
0
0
0
0
0
0
0
0
0
0
0
0
0
0
0
0
0
0
0
0
0
0
0
0
0
0
0
0
0
0
0
0
0
0
0
0
0
0
0
0
0
0
0
0
0
0
0
0
0
0.00886108
0.00886108
0.00885812
0.00885122
0.00884058
0.00882623
0.00880817
0.00878636
0.00876072
0.00873119
0.00869767
0.00866007
0.00861827
0.00857213
0.00852153
0.00846631
0.00840629
0.0083413
0.00827114
0.00819558
0.00811439
0.00802733
0.00793412
0.00783445
0.00772802
0.00761446
0.0074934
0.00736443
0.00722709
0.00708089
0.00692528
0.00675965
0.00658334
0.00639559
0.00619555
0.00598226
0.00575463
0.00551138
0.00525102
0.00497179
0.00467156
0.00434771
0.00399697
0.00361508
0.00319632
0.00273266
0.00221199
0.00161448
0.000903451
0
0.0173286
0.0173286
0.0173227
0.0173089
0.0172876
0.0172589
0.0172228
0.0171792
0.017128
0.017069
0.017002
0.0169268
0.0168433
0.0167511
0.01665
0.0165396
0.0164197
0.0162898
0.0161496
0.0159986
0.0158364
0.0156625
0.0154762
0.0152771
0.0150645
0.0148377
0.0145959
0.0143383
0.0140641
0.0137721
0.0134614
0.0131308
0.0127789
0.0124042
0.012005
0.0115795
0.0111255
0.0106405
0.0101216
0.00956531
0.00896755
0.00832329
0.00762625
0.00686842
0.00603929
0.00512449
0.00410359
0.00294605
0.00160394
0
0.0254145
0.0254145
0.0254057
0.025385
0.0253531
0.0253102
0.0252561
0.0251908
0.025114
0.0250256
0.0249252
0.0248127
0.0246875
0.0245495
0.024398
0.0242327
0.0240531
0.0238587
0.0236487
0.0234227
0.0231798
0.0229194
0.0226406
0.0223426
0.0220243
0.0216849
0.0213231
0.0209377
0.0205274
0.0200907
0.019626
0.0191316
0.0186055
0.0180455
0.0174491
0.0168136
0.0161358
0.015412
0.0146381
0.0138091
0.0129192
0.0119611
0.0109262
0.00980347
0.00857902
0.00723443
0.00574503
0.00407692
0.00218315
0
0.0331308
0.0331308
0.033119
0.0330914
0.033049
0.0329919
0.0329199
0.032833
0.0327309
0.0326132
0.0324797
0.03233
0.0321635
0.0319798
0.0317783
0.0315585
0.0313196
0.031061
0.0307817
0.0304811
0.0301582
0.029812
0.0294413
0.0290452
0.0286222
0.0281711
0.0276903
0.0271783
0.0266333
0.0260534
0.0254364
0.0247802
0.024082
0.0233391
0.0225483
0.021706
0.0208081
0.01985
0.0188263
0.0177308
0.0165561
0.0152934
0.0139322
0.0124595
0.0108591
0.00911066
0.00718825
0.00505863
0.00267968
0
0.0404891
0.0404891
0.0404744
0.0404401
0.0403873
0.040316
0.0402263
0.040118
0.0399907
0.039844
0.0396776
0.039491
0.0392835
0.0390546
0.0388035
0.0385296
0.0382319
0.0379097
0.0375619
0.0371874
0.0367852
0.036354
0.0358925
0.0353992
0.0348727
0.0343112
0.0337129
0.0330758
0.0323979
0.0316767
0.0309097
0.0300941
0.0292267
0.0283042
0.0273226
0.0262776
0.0251645
0.0239776
0.0227106
0.0213563
0.0199062
0.0183502
0.0166764
0.0148708
0.0129161
0.0107913
0.00847106
0.00592443
0.00311472
0
0.0475014
0.0475014
0.0474838
0.0474428
0.0473796
0.0472944
0.0471872
0.0470576
0.0469054
0.04673
0.0465311
0.0463079
0.0460598
0.0457862
0.0454861
0.0451586
0.0448029
0.0444177
0.0440021
0.0435547
0.0430741
0.042559
0.0420078
0.0414188
0.0407901
0.0401198
0.0394058
0.0386456
0.0378369
0.0369769
0.0360626
0.0350906
0.0340574
0.0329591
0.031791
0.0305485
0.0292258
0.0278167
0.0263142
0.02471
0.022995
0.0211583
0.0191872
0.017067
0.0147802
0.0123064
0.00962123
0.00669684
0.00350137
0
0.0541793
0.0541793
0.0541589
0.0541112
0.0540378
0.0539388
0.0538142
0.0536636
0.0534868
0.0532831
0.053052
0.0527928
0.0525046
0.0521868
0.0518383
0.051458
0.0510449
0.0505978
0.0501153
0.0495959
0.0490383
0.0484406
0.047801
0.0471178
0.0463886
0.0456114
0.0447837
0.0439028
0.0429659
0.0419699
0.0409113
0.0397865
0.0385915
0.0373217
0.0359723
0.0345377
0.0330119
0.0313881
0.0296585
0.0278144
0.0258461
0.023742
0.0214894
0.0190733
0.0164765
0.0136794
0.0106596
0.00739183
0.00384844
0
0.0605343
0.0605343
0.060511
0.0604568
0.0603733
0.0602607
0.060119
0.0599478
0.0597467
0.0595151
0.0592522
0.0589575
0.0586299
0.0582685
0.0578723
0.0574401
0.0569706
0.0564624
0.0559142
0.0553241
0.0546906
0.0540117
0.0532855
0.0525098
0.0516822
0.0508002
0.0498611
0.0488621
0.0477998
0.0466709
0.0454717
0.0441981
0.0428456
0.0414093
0.039884
0.0382637
0.0365418
0.0347112
0.0327637
0.0306901
0.0284804
0.0261229
0.0236047
0.0209111
0.0180255
0.0149294
0.0116022
0.00802125
0.00416227
0
0.0665777
0.0665777
0.0665518
0.0664911
0.0663977
0.0662717
0.0661132
0.0659216
0.0656966
0.0654375
0.0651435
0.0648138
0.0644475
0.0640433
0.0636002
0.063117
0.0625921
0.062024
0.0614112
0.0607518
0.0600439
0.0592855
0.0584744
0.0576081
0.0566842
0.0556998
0.0546521
0.0535377
0.0523533
0.0510951
0.0497591
0.0483408
0.0468356
0.0452382
0.0435429
0.0417435
0.0398331
0.0378041
0.0356481
0.0333559
0.030917
0.0283199
0.0255518
0.0225986
0.0194443
0.0160716
0.0124617
0.00859418
0.00444761
0
0.0723209
0.0723209
0.0722923
0.0722253
0.0721222
0.0719831
0.071808
0.0715965
0.0713481
0.071062
0.0707374
0.0703734
0.0699689
0.0695229
0.0690338
0.0685005
0.0679213
0.0672946
0.0666186
0.0658913
0.0651107
0.0642746
0.0633805
0.0624259
0.061408
0.0603238
0.0591701
0.0579436
0.0566404
0.0552566
0.053788
0.0522298
0.0505769
0.048824
0.046965
0.0449935
0.0429023
0.0406836
0.0383289
0.0358288
0.0331729
0.0303499
0.0273473
0.0241513
0.0207472
0.0171186
0.0132482
0.00911778
0.00470817
0
0.077775
0.077775
0.0777436
0.0776705
0.0775578
0.0774059
0.0772146
0.0769835
0.0767121
0.0763996
0.0760451
0.0756475
0.0752058
0.0747187
0.0741847
0.0736024
0.0729702
0.0722861
0.0715484
0.0707548
0.0699033
0.0689914
0.0680164
0.0669758
0.0658664
0.0646851
0.0634286
0.0620931
0.0606748
0.0591695
0.0575726
0.0558792
0.054084
0.0521815
0.0501653
0.0480288
0.0457647
0.0433651
0.0408215
0.0381243
0.0352635
0.0322279
0.0290053
0.0255828
0.0219463
0.0180807
0.0139701
0.00959785
0.00494691
0
0.0829506
0.0829506
0.0829168
0.0828376
0.0827156
0.0825511
0.082344
0.0820938
0.0817999
0.0814616
0.0810777
0.0806474
0.0801693
0.079642
0.0790642
0.0784341
0.0777501
0.0770101
0.0762122
0.0753542
0.0744336
0.0734478
0.0723943
0.07127
0.0700718
0.0687964
0.0674402
0.0659993
0.0644697
0.0628469
0.0611263
0.0593027
0.0573708
0.0553245
0.0531577
0.0508636
0.0484346
0.045863
0.0431401
0.0402566
0.0372025
0.033967
0.0305385
0.0269046
0.023052
0.0189667
0.0146342
0.0100392
0.00516628
0
0.0878587
0.0878587
0.0878223
0.0877373
0.0876062
0.0874294
0.0872068
0.086938
0.0866222
0.0862587
0.0858463
0.0853839
0.0848703
0.084304
0.0836834
0.0830069
0.0822724
0.081478
0.0806216
0.0797008
0.0787131
0.0776557
0.0765259
0.0753206
0.0740364
0.0726698
0.0712172
0.0696746
0.0680376
0.0663017
0.064462
0.0625134
0.0604501
0.0582664
0.0559557
0.0535111
0.0509253
0.0481903
0.0452976
0.0422382
0.0390021
0.035579
0.0319578
0.0281267
0.0240732
0.0197842
0.0152464
0.0104457
0.0053683
0
0.0925095
0.0925095
0.0924708
0.09238
0.09224
0.0920513
0.0918137
0.0915267
0.0911896
0.0908015
0.0903613
0.0898679
0.0893197
0.0887154
0.0880533
0.0873315
0.086548
0.0857009
0.0847877
0.083806
0.0827532
0.0816264
0.0804228
0.079139
0.0777717
0.0763172
0.0747716
0.0731308
0.0713905
0.0695458
0.0675919
0.0655234
0.0633346
0.0610194
0.0585714
0.0559837
0.0532489
0.0503591
0.047306
0.0440806
0.0406735
0.0370745
0.0332731
0.029258
0.0250175
0.0205396
0.0158117
0.010821
0.00555468
0
0.0969135
0.0969135
0.0968724
0.0967761
0.0966275
0.0964271
0.0961749
0.0958702
0.0955124
0.0951005
0.0946333
0.0941096
0.0935279
0.0928867
0.0921842
0.0914186
0.0905877
0.0896893
0.0887211
0.0876805
0.0865648
0.085371
0.084096
0.0827365
0.081289
0.0797497
0.0781147
0.0763796
0.0745399
0.072591
0.0705276
0.0683444
0.0660356
0.0635952
0.0610166
0.0582929
0.0554168
0.0523807
0.0491761
0.0457945
0.0422266
0.0384628
0.0344929
0.0303062
0.0258919
0.0212385
0.0163343
0.0111678
0.00572689
0
0.10108
0.10108
0.101037
0.100935
0.100778
0.100567
0.1003
0.0999786
0.0996007
0.0991657
0.0986723
0.0981193
0.0975051
0.0968282
0.0960867
0.0952785
0.0944017
0.0934538
0.0924325
0.0913349
0.0901584
0.0888999
0.0875562
0.0861238
0.0845991
0.0829783
0.0812573
0.0794317
0.0774969
0.0754481
0.0732801
0.0709874
0.0685643
0.0660046
0.0633019
0.0604493
0.0574396
0.0542651
0.0509178
0.0473892
0.0436705
0.0397523
0.0356249
0.0312783
0.0267021
0.0218857
0.0168182
0.0114887
0.00588621
0
0.10502
0.10502
0.104975
0.104868
0.104703
0.10448
0.1042
0.103862
0.103464
0.103007
0.102488
0.101907
0.101261
0.10055
0.0997705
0.0989214
0.0980002
0.0970045
0.0959319
0.0947795
0.0935444
0.0922236
0.0908137
0.0893112
0.0877125
0.0860134
0.08421
0.0822977
0.0802719
0.0781277
0.0758598
0.0734628
0.0709309
0.068258
0.0654376
0.0624629
0.0593268
0.0560218
0.0525401
0.0488734
0.0450132
0.0409505
0.0366761
0.0321804
0.0274536
0.0224856
0.0172665
0.0117859
0.00603376
0
0.108742
0.108742
0.108695
0.108583
0.10841
0.108177
0.107883
0.107529
0.107113
0.106634
0.106091
0.105482
0.104806
0.104061
0.103245
0.102357
0.101393
0.100351
0.0992291
0.0980239
0.0967326
0.0953519
0.0938785
0.0923087
0.0906389
0.0888649
0.0869826
0.0849875
0.0828748
0.0806396
0.0782766
0.0757804
0.0731452
0.0703648
0.0674329
0.0643428
0.0610875
0.0576595
0.0540514
0.0502551
0.0462623
0.0420644
0.0376526
0.0330179
0.0281509
0.0230421
0.0176822
0.0120615
0.00617051
0
0.112256
0.112256
0.112206
0.112089
0.111909
0.111666
0.11136
0.11099
0.110556
0.110056
0.109489
0.108854
0.108149
0.107372
0.106521
0.105594
0.104589
0.103503
0.102334
0.101078
0.0997323
0.0982942
0.0967599
0.0951258
0.093388
0.0915424
0.0895848
0.0875106
0.085315
0.0829932
0.0805399
0.0779494
0.0752162
0.072334
0.0692967
0.0660976
0.0627299
0.0591863
0.0554593
0.0515414
0.0474244
0.0431002
0.0385602
0.0337958
0.0287982
0.0235585
0.0180678
0.012317
0.00629733
0
0.11557
0.11557
0.115518
0.115397
0.115209
0.114956
0.114638
0.114253
0.113801
0.113281
0.112692
0.112031
0.111298
0.11049
0.109606
0.108643
0.107598
0.10647
0.105255
0.10395
0.102553
0.10106
0.0994672
0.0977715
0.0959688
0.0940548
0.0920254
0.0898759
0.0876016
0.0851975
0.0826582
0.0799785
0.0771524
0.0741741
0.0710372
0.0677354
0.0642617
0.0606093
0.0567709
0.052739
0.0485057
0.0440634
0.0394037
0.0345185
0.0293994
0.024038
0.0184257
0.0125542
0.00641501
0
0.118693
0.118693
0.118639
0.118514
0.118319
0.118057
0.117726
0.117327
0.116859
0.11632
0.115708
0.115024
0.114263
0.113426
0.112509
0.111511
0.110428
0.109259
0.108001
0.10665
0.105203
0.103657
0.102009
0.100255
0.09839
0.0964109
0.0943132
0.0920921
0.0897429
0.0872607
0.0846401
0.0818757
0.0789619
0.0758928
0.072662
0.0692634
0.0656902
0.0619356
0.0579926
0.0538538
0.0495119
0.0449592
0.0401879
0.0351901
0.0299579
0.0244832
0.018758
0.0127743
0.00652423
0
0.121633
0.121633
0.121578
0.121448
0.121247
0.120976
0.120634
0.120221
0.119737
0.119179
0.118547
0.117839
0.117053
0.116187
0.115239
0.114207
0.113088
0.11188
0.11058
0.109185
0.107691
0.106095
0.104394
0.102583
0.10066
0.0986189
0.0964562
0.0941672
0.091747
0.0891908
0.0864932
0.0836489
0.0806523
0.0774974
0.0741782
0.0706885
0.0670218
0.0631713
0.0591303
0.0548916
0.050448
0.0457923
0.0409169
0.0358143
0.0304768
0.0248967
0.0190666
0.0129787
0.00662562
0
0.124399
0.124399
0.124343
0.124209
0.124001
0.123721
0.123369
0.122943
0.122443
0.121867
0.121215
0.120485
0.119674
0.118781
0.117804
0.11674
0.115586
0.114341
0.113001
0.111564
0.110025
0.108381
0.10663
0.104766
0.102786
0.100687
0.0984623
0.0961088
0.0936215
0.0909952
0.0882249
0.0853052
0.0822304
0.0789948
0.0755925
0.0720172
0.0682627
0.0643223
0.0601895
0.0558573
0.0513189
0.046567
0.0415945
0.0363942
0.0309587
0.0252808
0.0193531
0.0131685
0.00671976
0
0.126999
0.126999
0.126941
0.126803
0.126589
0.126301
0.125938
0.1255
0.124985
0.124393
0.123721
0.12297
0.122135
0.121216
0.120211
0.119116
0.11793
0.11665
0.115272
0.113794
0.112212
0.110523
0.108724
0.106809
0.104777
0.102621
0.100339
0.0979243
0.0953734
0.0926811
0.0898421
0.0868512
0.0837029
0.0803914
0.0769109
0.0732554
0.0694185
0.065394
0.0611753
0.0567558
0.0521287
0.0472872
0.0422243
0.036933
0.0314064
0.0256375
0.0196192
0.0133447
0.00680715
0
0.129439
0.129439
0.12938
0.129238
0.129019
0.128722
0.12835
0.127899
0.127371
0.126762
0.126073
0.125301
0.124444
0.1235
0.122468
0.121344
0.120127
0.118813
0.117399
0.115883
0.11426
0.112528
0.110683
0.108721
0.106638
0.10443
0.102092
0.0996205
0.0970096
0.0942549
0.0913513
0.0882935
0.085076
0.0816932
0.0781394
0.0744085
0.0704946
0.0663913
0.0620924
0.0575913
0.0528816
0.0479565
0.0428094
0.0374335
0.0318222
0.0259686
0.0198661
0.0135082
0.00688826
0
0.131728
0.131728
0.131667
0.131521
0.131297
0.130993
0.130611
0.130149
0.129607
0.128983
0.128277
0.127485
0.126607
0.12564
0.124582
0.123431
0.122184
0.120838
0.11939
0.117837
0.116176
0.114404
0.112516
0.110508
0.108378
0.10612
0.10373
0.101204
0.0985364
0.0957231
0.0927586
0.0896379
0.0863554
0.0829058
0.0792832
0.0754818
0.0714958
0.0673189
0.062945
0.0583679
0.0535811
0.0485782
0.0433527
0.0378982
0.0322081
0.0262759
0.0200953
0.0136599
0.00696351
0
0.133871
0.133871
0.133809
0.13366
0.13343
0.13312
0.132728
0.132256
0.131701
0.131063
0.13034
0.12953
0.128631
0.127642
0.12656
0.125383
0.124107
0.122731
0.121251
0.119664
0.117967
0.116155
0.114227
0.112177
0.110001
0.107696
0.105258
0.10268
0.0999598
0.0970913
0.0940697
0.0908899
0.0875466
0.0840342
0.0803473
0.07648
0.0724266
0.068181
0.0637373
0.0590893
0.0542307
0.0491554
0.043857
0.0383294
0.0325661
0.026561
0.0203079
0.0138007
0.00703331
0
0.135876
0.135876
0.135813
0.135661
0.135426
0.135108
0.134709
0.134226
0.133659
0.133007
0.132269
0.131441
0.130524
0.129514
0.128409
0.127206
0.125904
0.124499
0.122989
0.121369
0.119638
0.11779
0.115823
0.113733
0.111515
0.109166
0.106681
0.104056
0.101285
0.0983651
0.0952899
0.0920548
0.0886545
0.0850835
0.0813364
0.0774076
0.0732913
0.0689817
0.0644728
0.0597588
0.0548335
0.0496908
0.0443248
0.0387292
0.0328981
0.0268253
0.0205049
0.0139311
0.007098
0
0.137749
0.137749
0.137684
0.137529
0.13729
0.136966
0.136558
0.136066
0.135488
0.134823
0.13407
0.133226
0.13229
0.13126
0.130133
0.128908
0.12758
0.126149
0.124609
0.122959
0.121195
0.119313
0.11731
0.115182
0.112925
0.110534
0.108006
0.105336
0.102518
0.0995496
0.0964243
0.0931375
0.0896838
0.0860581
0.0822549
0.0782687
0.0740938
0.0697245
0.0651551
0.0603796
0.0553923
0.0501871
0.0447583
0.0390997
0.0332056
0.0270701
0.0206875
0.0140519
0.00715791
0
0.139496
0.139496
0.13943
0.139272
0.139028
0.138699
0.138283
0.137782
0.137193
0.136516
0.135748
0.134889
0.133936
0.132887
0.13174
0.130493
0.129142
0.127685
0.126118
0.124439
0.122645
0.120731
0.118694
0.11653
0.114236
0.111806
0.109237
0.106525
0.103664
0.10065
0.0974776
0.0941424
0.090639
0.0869623
0.0831068
0.0790671
0.0748377
0.0704129
0.0657872
0.0609547
0.0559098
0.0506467
0.0451596
0.0394426
0.0334903
0.0272967
0.0208563
0.0141637
0.00721335
0
0.141122
0.141122
0.141055
0.140895
0.140647
0.140311
0.139889
0.139379
0.13878
0.138091
0.137311
0.136437
0.135468
0.134402
0.133235
0.131967
0.130594
0.129113
0.127521
0.125815
0.123992
0.122048
0.119979
0.117782
0.115453
0.112987
0.11038
0.107628
0.104726
0.10167
0.098454
0.0950738
0.0915241
0.0877999
0.0838957
0.0798063
0.0755263
0.07105
0.0663721
0.0614868
0.0563885
0.0510717
0.0455306
0.0397597
0.0337534
0.0275061
0.0210124
0.014267
0.00726457
0
0.142633
0.142633
0.142565
0.142402
0.14215
0.14181
0.141381
0.140863
0.140254
0.139555
0.138762
0.137875
0.13689
0.135807
0.134623
0.133335
0.131941
0.130438
0.128822
0.127091
0.125241
0.123269
0.121171
0.118943
0.116581
0.114081
0.111439
0.10865
0.10571
0.102614
0.0993578
0.0959357
0.092343
0.0885746
0.0846252
0.0804898
0.0761627
0.0716388
0.0669124
0.0619782
0.0568306
0.0514641
0.0458732
0.0400524
0.0339962
0.0276994
0.0211565
0.0143623
0.00731185
0
0.144034
0.144034
0.143965
0.1438
0.143545
0.143199
0.142764
0.142238
0.141621
0.140911
0.140107
0.139207
0.138208
0.13711
0.135909
0.134603
0.13319
0.131665
0.130027
0.128273
0.126398
0.124399
0.122274
0.120017
0.117624
0.115093
0.112418
0.109595
0.106619
0.103487
0.100193
0.0967316
0.093099
0.0892897
0.0852986
0.0811204
0.0767499
0.0721818
0.0674108
0.0624314
0.0572382
0.0518258
0.0461889
0.0403221
0.03422
0.0278774
0.0212892
0.0144502
0.0073554
0
0.14533
0.14533
0.14526
0.145093
0.144834
0.144484
0.144043
0.14351
0.142885
0.142165
0.141351
0.140438
0.139427
0.138314
0.137097
0.135775
0.134343
0.132799
0.131141
0.129364
0.127466
0.125443
0.123291
0.121007
0.118587
0.116026
0.113321
0.110466
0.107458
0.104291
0.100962
0.0974651
0.0937956
0.0899484
0.0859187
0.0817011
0.0772905
0.0726817
0.0678694
0.0628483
0.0576131
0.0521586
0.0464793
0.0405701
0.0344258
0.0280412
0.0214112
0.0145309
0.00739544
0
0.146525
0.146525
0.146455
0.146286
0.146023
0.145669
0.145222
0.144683
0.14405
0.143322
0.142497
0.141574
0.14055
0.139424
0.138193
0.136854
0.135405
0.133844
0.132166
0.130369
0.128449
0.126404
0.124228
0.12192
0.119473
0.116885
0.114151
0.111267
0.108229
0.105031
0.101669
0.0981393
0.0944357
0.0905537
0.0864882
0.0822344
0.0777869
0.0731406
0.0682904
0.063231
0.0579572
0.0524639
0.0467457
0.0407977
0.0346146
0.0281914
0.0215231
0.014605
0.00743217
0
0.147623
0.147623
0.147552
0.147382
0.147116
0.146758
0.146306
0.145761
0.145121
0.144385
0.14355
0.142617
0.141582
0.140443
0.139199
0.137846
0.136381
0.134803
0.133107
0.131292
0.129352
0.127286
0.125088
0.122756
0.120286
0.117673
0.114913
0.112002
0.108935
0.105709
0.102318
0.0987569
0.095022
0.091108
0.0870099
0.0827227
0.0782413
0.0735607
0.0686757
0.0635812
0.0582721
0.0527432
0.0469895
0.0410058
0.0347872
0.0283287
0.0216255
0.0146727
0.00746576
0
0.148629
0.148629
0.148558
0.148385
0.148117
0.147755
0.147299
0.146748
0.146101
0.145357
0.144515
0.143572
0.142526
0.141376
0.140119
0.138753
0.137274
0.13568
0.133969
0.132135
0.130178
0.128092
0.125874
0.123521
0.121029
0.118393
0.115609
0.112673
0.109581
0.106328
0.102909
0.0993208
0.0955572
0.0916139
0.0874859
0.0831682
0.0786558
0.0739438
0.0690271
0.0639006
0.0585592
0.0529979
0.0472117
0.0411956
0.0349446
0.0284539
0.0217188
0.0147345
0.00749636
0
0.149546
0.149546
0.149474
0.1493
0.149029
0.148664
0.148204
0.147647
0.146995
0.146244
0.145394
0.144442
0.143387
0.142226
0.140958
0.139579
0.138087
0.136479
0.134753
0.132904
0.130929
0.128826
0.12659
0.124217
0.121704
0.119047
0.116242
0.113283
0.110168
0.106891
0.103447
0.0998333
0.0960436
0.0920736
0.0879183
0.0835729
0.0790324
0.0742918
0.0693462